 Gaussian 09, Revision D.01,

 ----------
 # hf/3-21g
 ----------

 -
 H
 -
 Symbolic Z-matrix:
 Charge =  0 Multiplicity = 2

 SCF Done:  E(UHF) = -0.496198636018     A.U. after    5 cycles
 Normal termination of Gaussian 09 at Wed Feb 28 13:28:49 2024.

 ----------
 # hf/3-21g
 ----------

 --
 H2
 --
 Symbolic Z-matrix:
 Charge =  0 Multiplicity = 1

 SCF Done:  E(RHF) =  -1.10472133420     A.U. after    4 cycles
 Normal termination of Gaussian 09 at Wed Feb 28 13:28:50 2024.

 ----------
 # hf/3-21g
 ----------

 ---
 H2+
 ---
 Symbolic Z-matrix:
 Charge =  1 Multiplicity = 2

 SCF Done:  E(UHF) = -0.541871894248     A.U. after    5 cycles
 Normal termination of Gaussian 09 at Wed Feb 28 13:28:50 2024.

 ----------
 # hf/3-21g
 ----------

 ---
 H3+
 ---
 Symbolic Z-matrix:
 Charge =  1 Multiplicity = 1

 SCF Done:  E(RHF) =  -1.26953146138     A.U. after    4 cycles
 Normal termination of Gaussian 09 at Wed Feb 28 13:28:51 2024.
 Gaussian 09:  EM64L-G09RevD.01 24-Apr-2013

 ----------
 # hf/3-21g
 ----------

 --
 He
 --
 Symbolic Z-matrix:
 Charge =  0 Multiplicity = 1

                         Standard orientation:
 ---------------------------------------------------------------------
 Center     Atomic      Atomic             Coordinates (Angstroms)
 Number     Number       Type             X           Y           Z
 ---------------------------------------------------------------------
      1          2           0        0.000000    0.000000    0.000000
 ---------------------------------------------------------------------

 SCF Done:  E(RHF) =  -2.83567987364     A.U. after    4 cycles

 The electronic state is 1-A1G.
 Alpha  occ. eigenvalues --   -0.90357
 Alpha virt. eigenvalues --    2.08170

 Mulliken charges:
               1
     1  He   0.000000
 Sum of Mulliken charges =   0.00000

 Dipole moment (field-independent basis, Debye):
    X=              0.0000    Y=              0.0000    Z=              0.0000  Tot=              0.0000
 Quadrupole moment (field-independent basis, Debye-Ang):
   XX=             -1.0114   YY=             -1.0114   ZZ=             -1.0114
   XY=              0.0000   XZ=              0.0000   YZ=              0.0000

 Normal termination of Gaussian 09 at Wed Feb 28 13:28:51 2024.
